/*--------------------------------*- C++ -*----------------------------------*\
| =========                 |                                                 |
| \\      /  F ield         | OpenFOAM: The Open Source CFD Toolbox           |
|  \\    /   O peration     | Version:  2.2.x                                 |
|   \\  /    A nd           | Web:      www.OpenFOAM.org                      |
|    \\/     M anipulation  |                                                 |
\*---------------------------------------------------------------------------*/
FoamFile
{
    version     2.0;
    format      ascii;
    class       volVectorField;
    location    "240";
    object      wallShearStress;
}
// * * * * * * * * * * * * * * * * * * * * * * * * * * * * * * * * * * * * * //

dimensions      [0 2 -2 0 0 0 0];

internalField   uniform (0 0 0);

boundaryField
{
    topWall
    {
        type            symmetryPlane;
    }
    bottomWall
    {
        type            calculated;
        value           nonuniform List<vector> 
50
(
(-0.000265367 2.40133e-30 1.42297e-14)
(-0.000265367 1.35677e-33 -1.95556e-14)
(-0.000265367 -1.19488e-30 6.58001e-15)
(-0.000265367 -9.10259e-34 -3.02326e-15)
(-0.000265367 1.19531e-30 8.91943e-15)
(-0.000265367 1.19646e-30 -9.14864e-15)
(-0.000265367 1.19552e-30 6.55727e-15)
(-0.000265367 -2.39083e-30 -9.94326e-15)
(-0.000265367 -1.19588e-30 6.36279e-15)
(-0.000265367 -1.19576e-30 -7.08042e-15)
(-0.000265367 1.1962e-30 6.29291e-15)
(-0.000265367 2.39233e-30 -5.01894e-15)
(-0.000265367 -2.39151e-30 3.08613e-15)
(-0.000265367 -2.39172e-30 -4.74437e-15)
(-0.000265367 1.19583e-30 2.28711e-15)
(-0.000265367 2.39146e-30 -3.80054e-15)
(-0.000265367 -1.19564e-30 3.73975e-15)
(-0.000265367 -1.19571e-30 -3.1447e-15)
(-0.000265367 1.19588e-30 1.94386e-15)
(-0.000265367 1.19579e-30 -2.52624e-15)
(-0.000265367 -2.12005e-34 2.08806e-15)
(-0.000265367 -1.19579e-30 -2.23177e-15)
(-0.000265367 2.91697e-34 2.70501e-15)
(-0.000265367 2.39159e-30 -1.90446e-15)
(-0.000265367 1.19551e-30 2.30381e-15)
(-0.000265367 1.63728e-34 -3.12354e-15)
(-0.000265367 -6.93576e-37 7.58563e-16)
(-0.000265367 2.05092e-34 -2.15436e-15)
(-0.000265367 -5.43888e-35 1.23029e-15)
(-0.000265367 1.97713e-34 -2.9974e-15)
(-0.000265367 -2.15057e-34 2.97907e-15)
(-0.000265367 -1.19569e-30 -2.22516e-15)
(-0.000265367 -2.3915e-30 8.03697e-16)
(-0.000265367 -1.97781e-34 -1.75682e-15)
(-0.000265367 2.39151e-30 1.29761e-15)
(-0.000265367 1.19584e-30 -3.30171e-15)
(-0.000265367 -2.4655e-34 3.64523e-15)
(-0.000265367 1.08331e-34 -2.76393e-15)
(-0.000265367 -7.24101e-35 1.4178e-15)
(-0.000265367 -1.19569e-30 -2.0556e-15)
(-0.000265367 -1.19575e-30 2.18322e-15)
(-0.000265367 1.19576e-30 -3.48892e-15)
(-0.000265367 1.1955e-30 3.88186e-15)
(-0.000265367 -2.391e-30 -3.29674e-15)
(-0.000265367 2.78402e-34 2.75313e-15)
(-0.000265367 2.39114e-30 -5.10368e-15)
(-0.000265367 -3.70352e-34 4.2378e-15)
(-0.000265367 -2.3883e-30 -3.92296e-15)
(-0.000265367 -2.38719e-30 2.55451e-16)
(-0.000265367 2.39002e-30 1.71248e-14)
)
;
    }
    inlet
    {
        type            cyclic;
    }
    outlet
    {
        type            cyclic;
    }
    sideWalls
    {
        type            empty;
    }
}


// ************************************************************************* //
